 Gaussian 09, Revision D.01,
 Gaussian 09:  AM64L-G09RevD.01 24-Apr-2013

 ----------------------------------------------------------------------
 # b3lyp/def2tzvp empiricaldispersion=gd3 pop=nbo6read pop=saveNBOs int
 =(grid=ultrafine) scf=(tight,maxcycle=300)
 ----------------------------------------------------------------------

 ---------------------------------------------
 Energy Optimisation and Frequency calculation
 ---------------------------------------------
 Symbolic Z-matrix:
 Charge =  0 Multiplicity = 1

                         Standard orientation:
 ---------------------------------------------------------------------
 Center     Atomic      Atomic             Coordinates (Angstroms)
 Number     Number       Type             X           Y           Z
 ---------------------------------------------------------------------
      1          6           0        0.023743   -0.597941    0.297981
      2          6           0       -1.327832   -0.913155    0.273045
      3          6           0       -2.281596    0.062201    0.010596
      4          6           0       -1.916857    1.372678   -0.251015
      5          6           0       -0.573552    1.704387   -0.212189
      6          6           0        0.406192    0.747902    0.083182
      7          1           0       -1.655102   -1.931577    0.425359
      8          1           0       -2.674919    2.111991   -0.461479
      9          1           0       -0.285320    2.729942   -0.392149
     10          7           0        1.773822    1.087262    0.132538
     11          6           0        2.216354    2.226566   -0.656176
     12          1           0        1.947046    3.194687   -0.210317
     13          1           0        3.303979    2.188800   -0.733053
     14          1           0        1.797041    2.173775   -1.660263
     15          6           0        2.383702    1.080594    1.464670
     16          1           0        2.192435    2.029935    1.982577
     17          1           0        3.458544    0.925955    1.375417
     18          1           0        1.975274    0.278525    2.071637
     19          6           0        1.031246   -1.717373    0.418676
     20          1           0        0.483693   -2.646203    0.576789
     21          1           0        1.691888   -1.601396    1.278947
     22          6           0        1.918625   -1.865385   -0.840103
     23          1           0        2.244753   -2.907320   -0.917100
     24          1           0        1.349768   -1.632791   -1.741891
     25          6           0        3.187459   -1.041672   -0.790861
     26          1           0        3.386227   -0.393222   -1.666646
     27          8           0        3.993660   -1.129557    0.103805
     28          7           0       -3.702088   -0.310369   -0.014167
     29          8           0       -4.515322    0.560961   -0.289318
     30          8           0       -3.993632   -1.470425    0.242606
 ---------------------------------------------------------------------

 SCF Done:  E(RB3LYP) =  -762.990914337     A.U. after   14 cycles

 The electronic state is 1-A.
 Alpha  occ. eigenvalues --  -19.15813 -19.15798 -19.12722 -14.55278 -14.35535
 Alpha  occ. eigenvalues --  -10.26777 -10.24230 -10.23836 -10.21792 -10.21113
 Alpha  occ. eigenvalues --  -10.21055 -10.20720 -10.20514 -10.20168 -10.19916
 Alpha  occ. eigenvalues --  -10.19468  -1.23235  -1.05805  -1.05572  -0.97182
 Alpha  occ. eigenvalues --   -0.89446  -0.82980  -0.80168  -0.77014  -0.73783
 Alpha  occ. eigenvalues --   -0.72365  -0.68875  -0.65257  -0.63027  -0.59363
 Alpha  occ. eigenvalues --   -0.57305  -0.55729  -0.54052  -0.53369  -0.52939
 Alpha  occ. eigenvalues --   -0.50774  -0.50145  -0.48901  -0.47845  -0.46146
 Alpha  occ. eigenvalues --   -0.45830  -0.45031  -0.44804  -0.42653  -0.41804
 Alpha  occ. eigenvalues --   -0.41132  -0.40147  -0.39780  -0.39317  -0.37620
 Alpha  occ. eigenvalues --   -0.37523  -0.35915  -0.31923  -0.31605  -0.30439
 Alpha  occ. eigenvalues --   -0.29899  -0.28301  -0.26575  -0.24287
 Alpha virt. eigenvalues --   -0.09554  -0.04354  -0.03298  -0.01111   0.01599
 Alpha virt. eigenvalues --    0.03820   0.04382   0.04765   0.06623   0.07343
 Alpha virt. eigenvalues --    0.07520   0.08243   0.08947   0.09347   0.09850

 Mulliken charges:
               1
     1  C    0.022037
     2  C   -0.236391
     3  C    0.051954
     4  C   -0.156649
     5  C   -0.182341
     6  C    0.201608
     7  H    0.146073
     8  H    0.153003
     9  H    0.120586
    10  N   -0.153177
    11  C   -0.317905
    12  H    0.115910
    13  H    0.146211
    14  H    0.140834
    15  C   -0.269042
    16  H    0.111542
    17  H    0.156602
    18  H    0.132726
    19  C   -0.159613
    20  H    0.116254
    21  H    0.114920
    22  C   -0.115293
    23  H    0.115391
    24  H    0.097147
    25  C    0.094024
    26  H    0.062388
    27  O   -0.296366
    28  N    0.420965
    29  O   -0.316849
    30  O   -0.316549
 Sum of Mulliken charges =   0.00000

 Dipole moment (field-independent basis, Debye):
    X=              3.7746    Y=              2.0781    Z=             -0.9713  Tot=              4.4169
 Quadrupole moment (field-independent basis, Debye-Ang):
   XX=           -130.9853   YY=            -88.1091   ZZ=            -91.9848
   XY=              1.8522   XZ=             -3.6591   YZ=              1.1009

 Summary of Natural Population Analysis:

                                     Natural Population
             Natural    ---------------------------------------------
  Atom No    Charge        Core      Valence    Rydberg      Total
 --------------------------------------------------------------------
    C  1   -0.03298      1.99999     4.01449    0.01850     6.03298
    C  2   -0.17232      1.99999     4.15378    0.01856     6.17232
    C  3    0.01313      1.99999     3.96500    0.02189     5.98687
    C  4   -0.17146      1.99999     4.15293    0.01854     6.17146
    C  5   -0.24321      1.99999     4.22602    0.01720     6.24321
    C  6    0.18313      1.99999     3.79642    0.02046     5.81687
    H  7    0.24153      0.00000     0.75665    0.00182     0.75847
    H  8    0.24639      0.00000     0.75210    0.00151     0.75361
    H  9    0.21799      0.00000     0.78011    0.00190     0.78201
    N 10   -0.41480      1.99999     5.38974    0.02507     7.41480
    C 11   -0.40451      1.99999     4.39197    0.01255     6.40451
    H 12    0.17314      0.00000     0.82327    0.00359     0.82686
    H 13    0.20816      0.00000     0.79006    0.00178     0.79184
    H 14    0.20559      0.00000     0.79287    0.00154     0.79441
    C 15   -0.39916      1.99999     4.38629    0.01288     6.39916
    H 16    0.17615      0.00000     0.82057    0.00328     0.82385
    H 17    0.21825      0.00000     0.77974    0.00201     0.78175
    H 18    0.20647      0.00000     0.79214    0.00139     0.79353
    C 19   -0.39858      1.99999     4.38547    0.01312     6.39858
    H 20    0.21589      0.00000     0.78250    0.00161     0.78411
    H 21    0.22455      0.00000     0.77267    0.00278     0.77545
    C 22   -0.49154      1.99999     4.47856    0.01299     6.49154
    H 23    0.23533      0.00000     0.76302    0.00165     0.76467
    H 24    0.20855      0.00000     0.78952    0.00193     0.79145
    C 25    0.44636      1.99999     3.52044    0.03321     5.55364
    H 26    0.10433      0.00000     0.89113    0.00454     0.89567
    O 27   -0.55170      1.99999     6.52622    0.02549     8.55170
    N 28    0.50097      1.99999     4.45735    0.04169     6.49903
    O 29   -0.37229      1.99999     6.35373    0.01857     8.37229
    O 30   -0.37337      1.99999     6.35468    0.01869     8.37337
 ====================================================================
 * Total *  0.00000     31.99983    85.63943    0.36074   118.00000

 Normal termination of Gaussian 09 at Wed Jul 14 10:07:55 2021.
