 Gaussian 09, Revision D.01,
 Gaussian 09:  AM64L-G09RevD.01 24-Apr-2013

 ----------------------------------------------------------------------
 # b3lyp/def2tzvp empiricaldispersion=gd3 pop=nbo6read pop=saveNBOs int
 =(grid=ultrafine) scf=(tight,maxcycle=300)
 ----------------------------------------------------------------------

 ---------------------------------------------
 Energy Optimisation and Frequency calculation
 ---------------------------------------------
 Symbolic Z-matrix:
 Charge =  0 Multiplicity = 1

                         Standard orientation:
 ---------------------------------------------------------------------
 Center     Atomic      Atomic             Coordinates (Angstroms)
 Number     Number       Type             X           Y           Z
 ---------------------------------------------------------------------
      1          6           0       -0.031337    0.557157    0.567037
      2          6           0        1.322368    0.839469    0.449494
      3          6           0        2.203521   -0.119239   -0.034116
      4          6           0        1.761678   -1.372198   -0.427565
      5          6           0        0.415583   -1.669224   -0.297465
      6          6           0       -0.487805   -0.732823    0.217495
      7          1           0        1.704325    1.818345    0.701713
      8          1           0        2.465401   -2.096028   -0.810160
      9          1           0        0.064786   -2.649628   -0.586216
     10          7           0       -1.862122   -1.027194    0.358362
     11          6           0       -2.446824   -1.959059   -0.593402
     12          1           0       -2.192109   -3.007961   -0.386009
     13          1           0       -3.532029   -1.859071   -0.553072
     14          1           0       -2.129676   -1.701787   -1.602054
     15          6           0       -2.320151   -1.263469    1.725156
     16          1           0       -1.842504   -0.574883    2.417941
     17          1           0       -3.401050   -1.119722    1.780588
     18          1           0       -2.089105   -2.286109    2.056066
     19          6           0       -0.986793    1.668791    0.932470
     20          1           0       -1.656581    1.383613    1.745981
     21          1           0       -0.405358    2.514065    1.301660
     22          6           0       -1.833864    2.141285   -0.268224
     23          1           0       -2.255887    3.123813   -0.022233
     24          1           0       -1.224689    2.258229   -1.165382
     25          6           0       -3.019052    1.264144   -0.589817
     26          1           0       -3.659022    1.021273    0.285528
     27          8           0       -3.331192    0.913739   -1.699782
     28          7           0        3.630696    0.212020   -0.150221
     29          8           0        4.376790   -0.637101   -0.616703
     30          8           0        3.993094    1.317495    0.228022
 ---------------------------------------------------------------------

 SCF Done:  E(RB3LYP) =  -762.991093594     A.U. after   15 cycles

 The electronic state is 1-A.
 Alpha  occ. eigenvalues --  -19.15871 -19.15864 -19.12539 -14.55334 -14.35141
 Alpha  occ. eigenvalues --  -10.26660 -10.24116 -10.23937 -10.22016 -10.21119
 Alpha  occ. eigenvalues --  -10.20979 -10.20741 -10.20606 -10.20446 -10.20155
 Alpha  occ. eigenvalues --  -10.19547  -1.23303  -1.05877  -1.05367  -0.97040
 Alpha  occ. eigenvalues --   -0.89501  -0.83286  -0.80264  -0.77194  -0.73767
 Alpha  occ. eigenvalues --   -0.72338  -0.68777  -0.65312  -0.62891  -0.59115
 Alpha  occ. eigenvalues --   -0.58293  -0.56272  -0.54106  -0.53251  -0.52867
 Alpha  occ. eigenvalues --   -0.50456  -0.49475  -0.48907  -0.46855  -0.46642
 Alpha  occ. eigenvalues --   -0.46256  -0.45307  -0.44649  -0.43043  -0.41740
 Alpha  occ. eigenvalues --   -0.41105  -0.40134  -0.39738  -0.39466  -0.38090
 Alpha  occ. eigenvalues --   -0.37788  -0.36091  -0.31975  -0.31655  -0.30183
 Alpha  occ. eigenvalues --   -0.29938  -0.28364  -0.26267  -0.24218
 Alpha virt. eigenvalues --   -0.09612  -0.04170  -0.02894  -0.01219   0.01613
 Alpha virt. eigenvalues --    0.03402   0.04082   0.05546   0.05693   0.07109
 Alpha virt. eigenvalues --    0.07732   0.07991   0.08288   0.09489   0.10556

 Mulliken charges:
               1
     1  C    0.023264
     2  C   -0.222845
     3  C    0.052147
     4  C   -0.147709
     5  C   -0.187148
     6  C    0.246735
     7  H    0.145466
     8  H    0.153491
     9  H    0.118953
    10  N   -0.187113
    11  C   -0.284388
    12  H    0.110046
    13  H    0.134017
    14  H    0.154727
    15  C   -0.266729
    16  H    0.133722
    17  H    0.126883
    18  H    0.113844
    19  C   -0.204063
    20  H    0.100708
    21  H    0.120000
    22  C   -0.098537
    23  H    0.109084
    24  H    0.104373
    25  C    0.101311
    26  H    0.039213
    27  O   -0.278980
    28  N    0.421006
    29  O   -0.315230
    30  O   -0.316245
 Sum of Mulliken charges =   0.00000

 Dipole moment (field-independent basis, Debye):
    X=             -4.5011    Y=             -1.1703    Z=              3.0230  Tot=              5.5469
 Quadrupole moment (field-independent basis, Debye-Ang):
   XX=           -122.2804   YY=            -86.5630   ZZ=            -98.0578
   XY=             -0.9119   XZ=             -8.8902   YZ=              2.9854

 Summary of Natural Population Analysis:

                                     Natural Population
             Natural    ---------------------------------------------
  Atom No    Charge        Core      Valence    Rydberg      Total
 --------------------------------------------------------------------
    C  1   -0.03396      1.99999     4.01513    0.01885     6.03396
    C  2   -0.17333      1.99999     4.15494    0.01840     6.17333
    C  3    0.01669      1.99999     3.96197    0.02135     5.98331
    C  4   -0.17091      1.99999     4.15264    0.01829     6.17091
    C  5   -0.23608      1.99999     4.21920    0.01689     6.23608
    C  6    0.18569      1.99999     3.79376    0.02056     5.81431
    H  7    0.24132      0.00000     0.75686    0.00181     0.75868
    H  8    0.24640      0.00000     0.75210    0.00151     0.75360
    H  9    0.21930      0.00000     0.77882    0.00188     0.78070
    N 10   -0.42292      1.99999     5.39813    0.02480     7.42292
    C 11   -0.40452      1.99999     4.39155    0.01299     6.40452
    H 12    0.16880      0.00000     0.82778    0.00342     0.83120
    H 13    0.20940      0.00000     0.78877    0.00183     0.79060
    H 14    0.21904      0.00000     0.77942    0.00154     0.78096
    C 15   -0.39355      1.99999     4.38130    0.01226     6.39355
    H 16    0.20291      0.00000     0.79568    0.00141     0.79709
    H 17    0.19667      0.00000     0.80124    0.00209     0.80333
    H 18    0.17721      0.00000     0.81909    0.00370     0.82279
    C 19   -0.39737      1.99999     4.38457    0.01281     6.39737
    H 20    0.20728      0.00000     0.79011    0.00261     0.79272
    H 21    0.21780      0.00000     0.78060    0.00161     0.78220
    C 22   -0.48948      1.99999     4.47648    0.01300     6.48948
    H 23    0.22876      0.00000     0.76961    0.00163     0.77124
    H 24    0.22316      0.00000     0.77429    0.00255     0.77684
    C 25    0.44760      1.99999     3.51891    0.03350     5.55240
    H 26    0.09197      0.00000     0.90317    0.00485     0.90803
    O 27   -0.53542      1.99999     6.50958    0.02585     8.53542
    N 28    0.50115      1.99999     4.45706    0.04180     6.49885
    O 29   -0.37047      1.99999     6.35180    0.01868     8.37047
    O 30   -0.37315      1.99999     6.35438    0.01878     8.37315
 ====================================================================
 * Total *  0.00000     31.99983    85.63892    0.36125   118.00000

 Normal termination of Gaussian 09 at Wed Jul 14 10:04:30 2021.
