 Gaussian 09, Revision D.01,
 Gaussian 09:  AM64L-G09RevD.01 24-Apr-2013

 ----------------------------------------------------------------------
 # b3lyp/def2tzvp empiricaldispersion=gd3 pop=nbo6read pop=saveNBOs int
 =(grid=ultrafine) scf=(tight,maxcycle=300)
 ----------------------------------------------------------------------

 ---------------------------------------------
 Energy Optimisation and Frequency calculation
 ---------------------------------------------
 Symbolic Z-matrix:
 Charge =  0 Multiplicity = 1

                         Standard orientation:
 ---------------------------------------------------------------------
 Center     Atomic      Atomic             Coordinates (Angstroms)
 Number     Number       Type             X           Y           Z
 ---------------------------------------------------------------------
      1          6           0        0.174743   -0.267179    0.312175
      2          6           0       -1.074811   -0.869824    0.311599
      3          6           0       -2.219664   -0.137126    0.022125
      4          6           0       -2.149277    1.211427   -0.284139
      5          6           0       -0.910374    1.829409   -0.267913
      6          6           0        0.258311    1.122193    0.044742
      7          1           0       -1.170176   -1.928418    0.506718
      8          1           0       -3.050416    1.761013   -0.511013
      9          1           0       -0.856293    2.886593   -0.483483
     10          7           0        1.518400    1.756840    0.050632
     11          6           0        1.674560    2.943430   -0.774928
     12          1           0        1.202067    3.840360   -0.346796
     13          1           0        2.740020    3.153780   -0.882264
     14          1           0        1.258500    2.769119   -1.766524
     15          6           0        2.149342    1.925471    1.360335
     16          1           0        1.770558    2.823721    1.869264
     17          1           0        3.229860    2.024930    1.242543
     18          1           0        1.949143    1.073931    2.003303
     19          6           0        1.401235   -1.133516    0.471725
     20          1           0        1.105961   -2.110923    0.855029
     21          1           0        2.104153   -0.733922    1.199256
     22          6           0        2.140571   -1.319901   -0.855934
     23          1           0        2.395290   -0.347645   -1.294233
     24          1           0        1.509468   -1.820458   -1.599444
     25          6           0        3.422353   -2.096915   -0.734955
     26          1           0        3.932263   -2.305484   -1.700378
     27          8           0        3.903060   -2.473508    0.303012
     28          7           0       -3.523906   -0.810882    0.021822
     29          8           0       -4.508586   -0.148103   -0.275049
     30          8           0       -3.554949   -1.997529    0.318518
 ---------------------------------------------------------------------

 SCF Done:  E(RB3LYP) =  -762.990404034     A.U. after   15 cycles

 The electronic state is 1-A.
 Alpha  occ. eigenvalues --  -19.15617 -19.15598 -19.13824 -14.55081 -14.35072
 Alpha  occ. eigenvalues --  -10.27322 -10.24074 -10.23610 -10.21733 -10.21720
 Alpha  occ. eigenvalues --  -10.20868 -10.20509 -10.20269 -10.19937 -10.19747
 Alpha  occ. eigenvalues --  -10.19336  -1.23028  -1.06505  -1.05594  -0.96936
 Alpha  occ. eigenvalues --   -0.89242  -0.82989  -0.80078  -0.77221  -0.73836
 Alpha  occ. eigenvalues --   -0.72275  -0.69263  -0.65235  -0.62685  -0.59064
 Alpha  occ. eigenvalues --   -0.57338  -0.55837  -0.53853  -0.53270  -0.52790
 Alpha  occ. eigenvalues --   -0.50534  -0.50155  -0.49042  -0.47749  -0.46655
 Alpha  occ. eigenvalues --   -0.46213  -0.45442  -0.44586  -0.42603  -0.41820
 Alpha  occ. eigenvalues --   -0.41404  -0.40344  -0.40101  -0.39022  -0.38149
 Alpha  occ. eigenvalues --   -0.37200  -0.36319  -0.31735  -0.31430  -0.30350
 Alpha  occ. eigenvalues --   -0.29703  -0.28557  -0.26848  -0.23836
 Alpha virt. eigenvalues --   -0.09372  -0.04077  -0.03753  -0.00939   0.01269
 Alpha virt. eigenvalues --    0.03687   0.04279   0.04543   0.06323   0.06911
 Alpha virt. eigenvalues --    0.07753   0.07908   0.08554   0.09082   0.09298

 Mulliken charges:
               1
     1  C    0.102177
     2  C   -0.239419
     3  C    0.058117
     4  C   -0.161710
     5  C   -0.179532
     6  C    0.197563
     7  H    0.147835
     8  H    0.152246
     9  H    0.119419
    10  N   -0.152668
    11  C   -0.303122
    12  H    0.112536
    13  H    0.130490
    14  H    0.140236
    15  C   -0.264841
    16  H    0.109442
    17  H    0.127664
    18  H    0.138043
    19  C   -0.217836
    20  H    0.118219
    21  H    0.104058
    22  C   -0.172985
    23  H    0.126611
    24  H    0.122461
    25  C    0.090034
    26  H    0.077669
    27  O   -0.267858
    28  N    0.420577
    29  O   -0.318387
    30  O   -0.317038
 Sum of Mulliken charges =   0.00000

 Dipole moment (field-independent basis, Debye):
    X=              4.1212    Y=              4.3255    Z=             -1.5991  Tot=              6.1847
 Quadrupole moment (field-independent basis, Debye-Ang):
   XX=           -123.8172   YY=            -93.6532   ZZ=            -92.2199
   XY=              2.0615   XZ=             -5.3587   YZ=              3.9126

 Summary of Natural Population Analysis:

                                     Natural Population
             Natural    ---------------------------------------------
  Atom No    Charge        Core      Valence    Rydberg      Total
 --------------------------------------------------------------------
    C  1   -0.03082      1.99999     4.01239    0.01844     6.03082
    C  2   -0.17484      1.99999     4.15643    0.01842     6.17484
    C  3    0.01288      1.99999     3.96529    0.02185     5.98712
    C  4   -0.17203      1.99999     4.15344    0.01860     6.17203
    C  5   -0.24585      1.99999     4.22861    0.01725     6.24585
    C  6    0.18527      1.99999     3.79493    0.01981     5.81473
    H  7    0.24116      0.00000     0.75698    0.00186     0.75884
    H  8    0.24562      0.00000     0.75286    0.00153     0.75438
    H  9    0.21689      0.00000     0.78116    0.00194     0.78311
    N 10   -0.42103      1.99999     5.39768    0.02336     7.42103
    C 11   -0.40127      1.99999     4.38939    0.01189     6.40127
    H 12    0.16867      0.00000     0.82758    0.00375     0.83133
    H 13    0.20243      0.00000     0.79588    0.00168     0.79757
    H 14    0.20617      0.00000     0.79239    0.00144     0.79383
    C 15   -0.39392      1.99999     4.38201    0.01192     6.39392
    H 16    0.17436      0.00000     0.82199    0.00365     0.82564
    H 17    0.19714      0.00000     0.80105    0.00180     0.80286
    H 18    0.20696      0.00000     0.79166    0.00138     0.79304
    C 19   -0.40854      1.99999     4.39258    0.01598     6.40854
    H 20    0.21935      0.00000     0.77882    0.00184     0.78065
    H 21    0.22240      0.00000     0.77515    0.00245     0.77760
    C 22   -0.49431      1.99999     4.48263    0.01169     6.49431
    H 23    0.23945      0.00000     0.75866    0.00190     0.76055
    H 24    0.22445      0.00000     0.77394    0.00161     0.77555
    C 25    0.43912      1.99999     3.52888    0.03201     5.56088
    H 26    0.10102      0.00000     0.89477    0.00421     0.89898
    O 27   -0.51371      1.99999     6.48871    0.02501     8.51371
    N 28    0.50090      1.99999     4.45743    0.04168     6.49910
    O 29   -0.37372      1.99999     6.35521    0.01852     8.37372
    O 30   -0.37419      1.99999     6.35545    0.01874     8.37419
 ====================================================================
 * Total *  0.00000     31.99983    85.64396    0.35620   118.00000

 Normal termination of Gaussian 09 at Wed Jul 14 10:03:01 2021.
