 Gaussian 09, Revision D.01,
 Gaussian 09:  AM64L-G09RevD.01 24-Apr-2013

 ----------------------------------------------------------------------
 # b3lyp/def2tzvp empiricaldispersion=gd3 pop=nbo6read pop=saveNBOs int
 =(grid=ultrafine) scf=(tight,maxcycle=300)
 ----------------------------------------------------------------------

 ---------------------------------------------
 Energy Optimisation and Frequency calculation
 ---------------------------------------------
 Symbolic Z-matrix:
 Charge =  0 Multiplicity = 1

                         Standard orientation:
 ---------------------------------------------------------------------
 Center     Atomic      Atomic             Coordinates (Angstroms)
 Number     Number       Type             X           Y           Z
 ---------------------------------------------------------------------
      1          6           0       -0.394643    0.262066    0.570120
      2          6           0        0.983100    0.430030    0.597834
      3          6           0        1.823307   -0.538127    0.065147
      4          6           0        1.319272   -1.686265   -0.523844
      5          6           0       -0.052231   -1.872036   -0.540393
      6          6           0       -0.923725   -0.926244    0.014790
      7          1           0        1.411593    1.340278    0.988976
      8          1           0        1.993399   -2.419279   -0.940720
      9          1           0       -0.448942   -2.777820   -0.975790
     10          7           0       -2.326421   -1.120008   -0.003611
     11          6           0       -2.867876   -1.938698   -1.076725
     12          1           0       -2.699165   -3.017108   -0.935334
     13          1           0       -3.946622   -1.779627   -1.126084
     14          1           0       -2.433573   -1.641075   -2.030466
     15          6           0       -2.927893   -1.458483    1.285688
     16          1           0       -2.793614   -2.524161    1.523960
     17          1           0       -3.997995   -1.243309    1.262843
     18          1           0       -2.476081   -0.882740    2.088806
     19          6           0       -1.283206    1.396683    1.031318
     20          1           0       -0.677467    2.116329    1.582289
     21          1           0       -2.054755    1.045667    1.714312
     22          6           0       -1.967761    2.117222   -0.136137
     23          1           0       -2.768887    2.774708    0.226540
     24          1           0       -2.462236    1.403529   -0.802205
     25          6           0       -1.050988    2.985755   -0.956375
     26          1           0       -1.520771    3.433262   -1.858890
     27          8           0        0.098364    3.221562   -0.687292
     28          7           0        3.277727   -0.331576    0.109429
     29          8           0        3.986774   -1.152293   -0.457914
     30          8           0        3.698842    0.643358    0.714271
 ---------------------------------------------------------------------

 SCF Done:  E(RB3LYP) =  -762.989249778     A.U. after   15 cycles

 The electronic state is 1-A.
 Alpha  occ. eigenvalues --  -19.15066 -19.15015 -19.13653 -14.54497 -14.34671
 Alpha  occ. eigenvalues --  -10.27155 -10.23546 -10.23058 -10.21653 -10.21490
 Alpha  occ. eigenvalues --  -10.20328 -10.20013 -10.19737 -10.19577 -10.19490
 Alpha  occ. eigenvalues --  -10.19371  -1.22471  -1.06381  -1.05042  -0.96561
 Alpha  occ. eigenvalues --   -0.88721  -0.82644  -0.79606  -0.76855  -0.73623
 Alpha  occ. eigenvalues --   -0.71757  -0.69032  -0.64835  -0.62352  -0.58921
 Alpha  occ. eigenvalues --   -0.56816  -0.55108  -0.53291  -0.52870  -0.52452
 Alpha  occ. eigenvalues --   -0.50558  -0.49144  -0.49066  -0.48079  -0.46041
 Alpha  occ. eigenvalues --   -0.45746  -0.44878  -0.44180  -0.42252  -0.41780
 Alpha  occ. eigenvalues --   -0.41627  -0.40074  -0.39799  -0.38443  -0.37728
 Alpha  occ. eigenvalues --   -0.37297  -0.36153  -0.31145  -0.30831  -0.29626
 Alpha  occ. eigenvalues --   -0.29142  -0.28135  -0.26531  -0.23676
 Alpha virt. eigenvalues --   -0.08758  -0.04065  -0.03184  -0.00538   0.01207
 Alpha virt. eigenvalues --    0.03643   0.04594   0.05452   0.06406   0.06642
 Alpha virt. eigenvalues --    0.07738   0.08107   0.08580   0.09175   0.09996

 Mulliken charges:
               1
     1  C   -0.016358
     2  C   -0.187799
     3  C    0.053291
     4  C   -0.156559
     5  C   -0.178705
     6  C    0.199019
     7  H    0.150965
     8  H    0.149648
     9  H    0.114884
    10  N   -0.154309
    11  C   -0.299448
    12  H    0.110187
    13  H    0.127932
    14  H    0.139602
    15  C   -0.263960
    16  H    0.109500
    17  H    0.122326
    18  H    0.132526
    19  C   -0.117456
    20  H    0.121593
    21  H    0.088811
    22  C   -0.180129
    23  H    0.114664
    24  H    0.128296
    25  C    0.096124
    26  H    0.076138
    27  O   -0.268997
    28  N    0.420324
    29  O   -0.321096
    30  O   -0.311015
 Sum of Mulliken charges =   0.00000

 Dipole moment (field-independent basis, Debye):
    X=             -8.4327    Y=             -1.8227    Z=             -0.0754  Tot=              8.6278
 Quadrupole moment (field-independent basis, Debye-Ang):
   XX=           -108.0804   YY=            -94.0026   ZZ=            -91.9993
   XY=             -3.1254   XZ=              0.1854   YZ=              1.4785

 Summary of Natural Population Analysis:

                                     Natural Population
             Natural    ---------------------------------------------
  Atom No    Charge        Core      Valence    Rydberg      Total
 --------------------------------------------------------------------
    C  1   -0.03476      1.99999     4.01534    0.01943     6.03476
    C  2   -0.15834      1.99999     4.13952    0.01884     6.15834
    C  3    0.01521      1.99999     3.96377    0.02104     5.98479
    C  4   -0.17318      1.99999     4.15487    0.01832     6.17318
    C  5   -0.24664      1.99999     4.22955    0.01710     6.24664
    C  6    0.18006      1.99999     3.80026    0.01970     5.81994
    H  7    0.25245      0.00000     0.74575    0.00180     0.74755
    H  8    0.24449      0.00000     0.75397    0.00155     0.75551
    H  9    0.21558      0.00000     0.78246    0.00197     0.78442
    N 10   -0.42880      1.99999     5.40557    0.02323     7.42880
    C 11   -0.40039      1.99999     4.38834    0.01206     6.40039
    H 12    0.16691      0.00000     0.82914    0.00395     0.83309
    H 13    0.20069      0.00000     0.79762    0.00169     0.79931
    H 14    0.20638      0.00000     0.79221    0.00141     0.79362
    C 15   -0.39228      1.99999     4.38061    0.01168     6.39228
    H 16    0.17280      0.00000     0.82326    0.00395     0.82720
    H 17    0.19474      0.00000     0.80346    0.00180     0.80526
    H 18    0.20360      0.00000     0.79500    0.00140     0.79640
    C 19   -0.40877      1.99999     4.39333    0.01545     6.40877
    H 20    0.22577      0.00000     0.77230    0.00193     0.77423
    H 21    0.21170      0.00000     0.78633    0.00198     0.78830
    C 22   -0.49633      1.99999     4.48385    0.01249     6.49633
    H 23    0.23063      0.00000     0.76790    0.00148     0.76937
    H 24    0.23650      0.00000     0.76171    0.00179     0.76350
    C 25    0.43662      1.99999     3.53106    0.03233     5.56338
    H 26    0.10044      0.00000     0.89523    0.00432     0.89956
    O 27   -0.51245      1.99999     6.48735    0.02511     8.51245
    N 28    0.50171      1.99999     4.45651    0.04179     6.49829
    O 29   -0.37683      1.99999     6.35822    0.01862     8.37683
    O 30   -0.36750      1.99999     6.34857    0.01894     8.36750
 ====================================================================
 * Total *  0.00000     31.99983    85.64304    0.35713   118.00000

 Normal termination of Gaussian 09 at Wed Jul 14 10:08:13 2021.
